 ----------------------------------------------------
 #p test hf/3-21g pop=full iop(1/33=3) nosymm out=mat
 ----------------------------------------------------

 TstMul:  Mul=     2
 TstMul:  ICh=    -1
 TstMul:  Mul=     2
 Symbolic Z-matrix:
 Charge = -1 Multiplicity = 2

                          Input orientation:
 ---------------------------------------------------------------------
 Center     Atomic      Atomic             Coordinates (Angstroms)
 Number     Number       Type             X           Y           Z
 ---------------------------------------------------------------------
      1          8           0        0.000000    0.000000    0.000000
      2          0           0        0.000000    0.000000    1.000000
 ---------------------------------------------------------------------

 SCF Done:  E(UHF) =  -74.2719356376     A.U. after    9 cycles

 Alpha  occ. eigenvalues --  -19.87762  -0.73144  -0.05808   0.02358   0.02358
 Alpha virt. eigenvalues --    2.20814   2.27726   2.27726   3.04112
  Beta  occ. eigenvalues --  -19.84783  -0.57362   0.06670   0.06670
  Beta virt. eigenvalues --    0.69656   2.30270   2.30270   2.40933   3.10082

 Mulliken charges and spin densities:
               1          2
     1  O   -1.000000   1.000000
     2  Bq   0.000000   0.000000
 Sum of Mulliken charges =  -1.00000   1.00000

 Dipole moment (field-independent basis, Debye):
    X=             -0.0000    Y=             -0.0000    Z=              0.0000  Tot=              0.0000
 Quadrupole moment (field-independent basis, Debye-Ang):
   XX=             -6.4382   YY=             -6.3936   ZZ=             -5.3725
   XY=             -0.0083   XZ=              0.0398   YZ=             -0.2218

 Normal termination of Gaussian DV at Fri Mar 16 23:47:14 2018.
