 ----------------------------------------
 #p test hf/3-21g pop=full nosymm out=mat
 ----------------------------------------

 ----
 test
 ----
 Symbolic Z-matrix:
 Charge =  0 Multiplicity = 2

                          Input orientation:
 ---------------------------------------------------------------------
 Center     Atomic      Atomic             Coordinates (Angstroms)
 Number     Number       Type             X           Y           Z
 ---------------------------------------------------------------------
      1          0           0        0.000000    0.000000    0.000000
      2          1           0        0.000000    0.000000    1.000000
 ---------------------------------------------------------------------

 SCF Done:  E(UHF) = -0.496198636018     A.U. after    5 cycles

 Alpha  occ. eigenvalues --   -0.49620
 Alpha virt. eigenvalues --    1.06900
  Beta virt. eigenvalues --    0.11344   1.25789

 Mulliken charges and spin densities:
               1          2
     1  Bq   0.000000   0.000000
     2  H    0.000000   1.000000
 Sum of Mulliken charges =   0.00000   1.00000

 Dipole moment (field-independent basis, Debye):
    X=              0.0000    Y=              0.0000    Z=              0.0000  Tot=              0.0000
 Quadrupole moment (field-independent basis, Debye-Ang):
   XX=             -1.2148   YY=             -1.2148   ZZ=             -1.2148
   XY=              0.0000   XZ=              0.0000   YZ=              0.0000

 Normal termination of Gaussian DV at Fri Mar 16 23:47:15 2018.
