 ----------------------------------------
 #p test hf/3-21g pop=full nosymm out=mat
 ----------------------------------------

 ----
 test
 ----
 Symbolic Z-matrix:
 Charge = -1 Multiplicity = 1

                          Input orientation:
 ---------------------------------------------------------------------
 Center     Atomic      Atomic             Coordinates (Angstroms)
 Number     Number       Type             X           Y           Z
 ---------------------------------------------------------------------
      1          8           0        0.000000    0.000000    0.000000
      2          1           0        0.000000    0.000000    1.000000
 ---------------------------------------------------------------------

 SCF Done:  E(RHF) =  -74.8681389537     A.U. after    9 cycles

 Alpha  occ. eigenvalues --  -19.89571  -0.76523  -0.10645   0.01578   0.01578
 Alpha virt. eigenvalues --    0.65963   1.62123   2.26248   2.26248   2.39946
 Alpha virt. eigenvalues --    3.36430

 Mulliken charges:
               1
     1  O   -1.051721
     2  H    0.051721
 Sum of Mulliken charges =  -1.00000

 Dipole moment (field-independent basis, Debye):
    X=             -0.0000    Y=             -0.0000    Z=              0.5541  Tot=              0.5541
 Quadrupole moment (field-independent basis, Debye-Ang):
   XX=             -7.3403   YY=             -7.3403   ZZ=             -6.4401
   XY=              0.0000   XZ=             -0.0000   YZ=             -0.0000

 Normal termination of Gaussian DV at Fri Mar 16 23:47:12 2018.
